9
Properties=species:S:1:pos:R:3:forces:R:3 method=Dimer image_index=0 is_ts=0 reaction_coordinate=-0.576292786289993 relative_energy=0.0 energy=-427.7435854214902 pbc="F F F"
C       -0.85303460      -0.15991894      -0.60585897      -0.00154423      -0.00137077       0.00004636
C        0.64591189      -0.16098059      -0.46248747       0.00219863       0.00261579       0.00058516
Cl      -0.89994338       0.38070361       2.41125064       0.00720564       0.00133981       0.00166039
H       -1.28139588       0.80364307      -0.34637537      -0.00224548      -0.00240820      -0.00148324
H       -1.31589730      -0.92989522       0.00388055      -0.00128595      -0.00150496      -0.00035080
H        1.10717165       0.61795826      -1.07004249      -0.00013428      -0.00218664       0.00289123
H        0.84494220       0.03645954       0.58994003      -0.00255036      -0.00051461      -0.00127150
H        1.07390969      -1.12574590      -0.73556523      -0.00269641       0.00245976       0.00402555
Br      -1.38227077      -0.52151043      -2.45345874       0.00105245       0.00156982      -0.00610316
9
Properties=species:S:1:pos:R:3:forces:R:3 method=Dimer image_index=1 is_ts=0 reaction_coordinate=-0.49356549899321533 relative_energy=0.12354173654404121 energy=-427.62004368494615 pbc="F F F"
C       -0.84715675      -0.15473236      -0.56989102       0.33348471       0.44654800      -1.07324201
C        0.64885070      -0.15325117      -0.41160445      -1.01046787       0.02120282      -0.18380584
Cl      -0.96152046       0.29916343       2.33940910      -0.02583162       0.02292693       0.08121599
H       -1.29428756       0.80163289      -0.34452644      -0.05677494       0.09088111       0.17219208
H       -1.31997923      -0.94742795      -0.05083416      -0.38545569      -0.53249018       0.51510438
H        1.12565110       0.51986134      -1.06487996       0.48258997       0.99869537      -0.93561667
H        0.85754630       0.14022311       0.57581510       0.12440849       0.35417953       1.38449090
H        1.05797955      -1.10807865      -0.56806371       0.46014956      -1.40416733      -0.24649421
Br      -1.31340443      -0.45667724      -2.49557009       0.07789739       0.00222374       0.28615538
9
Properties=species:S:1:pos:R:3:forces:R:3 method=Dimer image_index=2 is_ts=0 reaction_coordinate=-0.4110651005996162 relative_energy=0.39342722008080955 energy=-427.3501582014094 pbc="F F F"
C       -0.84127891      -0.14954578      -0.53392308       0.66752191       0.90501563      -1.74508462
C        0.65178950      -0.14552174      -0.36072143      -1.96791634       0.04730450      -0.35331926
Cl      -1.02309754       0.21762324       2.26756757      -0.06028644       0.02835800       0.13773193
H       -1.30717924       0.79962271      -0.34267750      -0.11034635       0.14927811       0.28846266
H       -1.32406115      -0.96496069      -0.10554887      -0.73481402      -1.02271288       0.81449722
H        1.14413056       0.42176443      -1.05971742       0.97226625       1.60456353      -1.90803434
H        0.87015039       0.24398668       0.56169016       0.29289735       0.95056635       2.44687366
H        1.04204941      -1.09041141      -0.40056219       0.83496455      -2.64670715      -0.14302687
Br      -1.24453809      -0.39184405      -2.53768144       0.10571310      -0.01566609       0.46189963
9
Properties=species:S:1:pos:R:3:forces:R:3 method=Dimer image_index=3 is_ts=0 reaction_coordinate=-0.32873967535520826 relative_energy=0.6434321157341856 energy=-427.100153305756 pbc="F F F"
C       -0.83540106      -0.14435919      -0.49795513       0.90872891       1.24290715      -1.93045163
C        0.65472831      -0.13779232      -0.30983841      -2.56177280       0.06833069      -0.45314871
Cl      -1.08467462       0.13608306       2.19572603      -0.08430703       0.01624911       0.15165461
H       -1.32007093       0.79761254      -0.34082857      -0.15216405       0.17194906       0.33908971
H       -1.32814308      -0.98249342      -0.16026358      -0.96888533      -1.35424735       0.86763226
H        1.16261001       0.32366751      -1.05455489       1.31390173       1.68634557      -2.62108005
H        0.88275449       0.34775025       0.54756523       0.43729033       1.57672271       2.91089941
H        1.02611927      -1.07274416      -0.23306066       1.01295367      -3.36956787       0.24007639
Br      -1.17567175      -0.32701086      -2.57979279       0.09425458      -0.03868908       0.49532801
9
Properties=species:S:1:pos:R:3:forces:R:3 method=Dimer image_index=4 is_ts=0 reaction_coordinate=-0.24653233246026535 relative_energy=0.7483545296443594 energy=-426.99523089184584 pbc="F F F"
C       -0.82952321      -0.13917261      -0.46198718       0.97880224       1.34271617      -1.67105254
C        0.65766711      -0.13006290      -0.25895539      -2.57229013       0.07217936      -0.44379913
Cl      -1.14625170       0.05454287       2.12388450      -0.08632992      -0.00555912       0.12121292
H       -1.33296261       0.79560236      -0.33897964      -0.17068336       0.16151273       0.32230713
H       -1.33222500      -1.00002615      -0.21497829      -1.01970380      -1.42753338       0.71104765
H        1.18108946       0.22557060      -1.04939236       1.37470193       1.31211925      -2.79736599
H        0.89535858       0.45151382       0.53344030       0.48856828       1.93447124       2.68395089
H        1.01018914      -1.05507691      -0.06555914       0.94492815      -3.33739782       0.66692825
Br      -1.10680541      -0.26217766      -2.62190414       0.06200661      -0.05250843       0.40677081
9
Properties=species:S:1:pos:R:3:forces:R:3 method=Dimer image_index=5 is_ts=0 reaction_coordinate=-0.16438228021101764 relative_energy=0.6845301026098127 energy=-427.0590553188804 pbc="F F F"
C       -0.82364536      -0.13398603      -0.42601924       0.83790314       1.14487315      -1.13333893
C        0.66060592      -0.12233348      -0.20807236      -1.99303845       0.05542141      -0.32954039
Cl      -1.20782879      -0.02699731       2.05204296      -0.06474425      -0.02253679       0.06762556
H       -1.34585429       0.79359218      -0.33713070      -0.15565192       0.12393195       0.24711167
H       -1.33630693      -1.01755888      -0.26969300      -0.85611673      -1.19761505       0.44066237
H        1.19956891       0.12747368      -1.04422982       1.11512695       0.72891055      -2.31952553
H        0.90796268       0.55527738       0.51931536       0.41239888       1.78710682       1.91618437
H        0.99425900      -1.03740966       0.10194238       0.67553832      -2.57127283       0.85305420
Br      -1.03793907      -0.19734447      -2.66401549       0.02858407      -0.04881921       0.25776669
9
Properties=species:S:1:pos:R:3:forces:R:3 method=Dimer image_index=6 is_ts=0 reaction_coordinate=-0.08222621992987533 relative_energy=0.5382519282729277 energy=-427.20533349321727 pbc="F F F"
C       -0.81776752      -0.12879945      -0.39005129       0.49498529       0.66956944      -0.52235908
C        0.66354472      -0.11460405      -0.15718934      -1.03289235       0.02666544      -0.15964121
Cl      -1.26940587      -0.10853750       1.98020143      -0.03066565      -0.02192585       0.02020947
H       -1.35874597       0.79158200      -0.33528177      -0.10009650       0.06648937       0.13170840
H       -1.34038885      -1.03509162      -0.32440771      -0.49631931      -0.69183162       0.17306167
H        1.21804837       0.02937677      -1.03906729       0.60917445       0.22824208      -1.29669019
H        0.92056677       0.65904095       0.50519043       0.22950285       1.09002648       0.91826842
H        0.97832886      -1.01974242       0.26944390       0.31999535      -1.33866139       0.62511987
Br      -0.96907273      -0.13251128      -2.70612683       0.00631587      -0.02857394       0.11032264
9
Properties=species:S:1:pos:R:3:forces:R:3 method=Dimer image_index=7 is_ts=1 reaction_coordinate=0.0 relative_energy=0.45623168585012763 energy=-427.28735373564007 pbc="F F F"
C       -0.81188967      -0.12361286      -0.35408335       0.00099315       0.00189675      -0.00053926
C        0.66648353      -0.10687463      -0.10630632       0.00312299       0.00103375      -0.00290169
Cl      -1.33098295      -0.19007768       1.90835989      -0.00048899       0.00142111       0.00225041
H       -1.37163766       0.78957182      -0.33343284      -0.00123517      -0.00434365      -0.00153173
H       -1.34447078      -1.05262435      -0.37912242      -0.00025117       0.00122834      -0.00052393
H        1.23652782      -0.06872015      -1.03390475      -0.00128264      -0.00001581       0.00135102
H        0.93317087       0.76280452       0.49106550      -0.00067672       0.00083997       0.00072922
H        0.96239872      -1.00207517       0.43694542       0.00083839      -0.00346619       0.00183215
Br      -0.90020639      -0.06767809      -2.74823818      -0.00101985       0.00140572      -0.00066620
9
Properties=species:S:1:pos:R:3:forces:R:3 method=Dimer image_index=8 is_ts=0 reaction_coordinate=0.03931770968978088 relative_energy=0.4549512565279201 energy=-427.2886341649623 pbc="F F F"
C       -0.80432174      -0.12424614      -0.25451785      -0.58564990      -0.05189467       0.52568146
C        0.66668254      -0.10697684      -0.11227177       0.04913210      -0.02958139       0.33420568
Cl      -1.25792625      -0.18518901       1.93986858       0.05382196       0.00898292      -0.20719382
H       -1.36156347       0.78521862      -0.28254046      -0.05978991       0.15371944      -0.15576584
H       -1.33602535      -1.04717557      -0.32561511      -0.04776122      -0.13031661      -0.15988609
H        1.14912713      -0.07229982      -1.06266843       0.37883363       0.02426333      -0.68585990
H        0.97019988       0.76523654       0.44963297       0.12261660       0.17763868       0.18852545
H        0.99772366      -1.00087749       0.39987690       0.11121501      -0.15579109       0.15961594
Br      -0.98807434      -0.07297688      -2.77762473      -0.02241827       0.00297938       0.00067711
9
Properties=species:S:1:pos:R:3:forces:R:3 method=Dimer image_index=9 is_ts=0 reaction_coordinate=0.07877422196249306 relative_energy=0.4290400387727118 energy=-427.3145453827175 pbc="F F F"
C       -0.79675381      -0.12487941      -0.15495236      -1.00281562      -0.09223221       1.14320994
C        0.66688156      -0.10707904      -0.11823722       0.14277119      -0.05154531       0.63202387
Cl      -1.18486955      -0.18030034       1.97137726       0.09644147       0.01573520      -0.42677356
H       -1.35148929       0.78086542      -0.23164809      -0.10087178       0.25683171      -0.29867525
H       -1.32757993      -1.04172679      -0.27210779      -0.08161544      -0.21393645      -0.30502107
H        1.06172644      -0.07587949      -1.09143211       0.55183596       0.03887625      -1.27089762
H        1.00722890       0.76766855       0.40820043       0.23131505       0.30388976       0.29924125
H        1.03304860      -0.99967982       0.36280838       0.20711797      -0.26126728       0.25256281
Br      -1.07594229      -0.07827567      -2.80701128      -0.04417880       0.00364832      -0.02567036
9
Properties=species:S:1:pos:R:3:forces:R:3 method=Dimer image_index=10 is_ts=0 reaction_coordinate=0.11852641539183228 relative_energy=0.3532552284087842 energy=-427.3903301930814 pbc="F F F"
C       -0.78918588      -0.12551269      -0.05538686      -1.19561721      -0.11515650       1.72810179
C        0.66708057      -0.10718124      -0.12420266       0.24869596      -0.06169583       0.81296277
Cl      -1.11181284      -0.17541167       2.00288595       0.12573759       0.02142923      -0.65844360
H       -1.34141511       0.77651222      -0.18075571      -0.12342378       0.30185248      -0.40152861
H       -1.31913450      -1.03627801      -0.21860048      -0.10115847      -0.24861186      -0.40780801
H        0.97432575      -0.07945917      -1.12019578       0.52259736       0.04262904      -1.63635382
H        1.04425792       0.77010057       0.36676790       0.30693358       0.36870890       0.33499081
H        1.06837354      -0.99848214       0.32573985       0.27288603      -0.31263210       0.28274788
Br      -1.16381024      -0.08357446      -2.83639783      -0.05665106       0.00347663      -0.05466922
9
Properties=species:S:1:pos:R:3:forces:R:3 method=Dimer image_index=11 is_ts=0 reaction_coordinate=0.1587211741610015 relative_energy=0.2209844644866621 energy=-427.52260095700353 pbc="F F F"
C       -0.78161795      -0.12614596       0.04417863      -1.14435306      -0.11801938       2.12347564
C        0.66727959      -0.10728345      -0.13016811       0.31965955      -0.05939840       0.82828519
Cl      -1.03875614      -0.17052299       2.03439463       0.13377718       0.02484562      -0.86258984
H       -1.33134093       0.77215902      -0.12986334      -0.12582195       0.29020987      -0.43620640
H       -1.31068908      -1.03082922      -0.16509316      -0.10460279      -0.23682159      -0.44092943
H        0.88692506      -0.08303884      -1.14895946       0.35175758       0.03679995      -1.69335718
H        1.08128694       0.77253258       0.32533537       0.33236192       0.36683084       0.30574635
H        1.10369847      -0.99728447       0.28867133       0.29410699      -0.30736940       0.25852045
Br      -1.25167819      -0.08887324      -2.86578438      -0.05688543       0.00292249      -0.08294478
9
Properties=species:S:1:pos:R:3:forces:R:3 method=Dimer image_index=12 is_ts=0 reaction_coordinate=0.19949112748070263 relative_energy=0.053036835547118244 energy=-427.6905485859431 pbc="F F F"
C       -0.77405002      -0.12677923       0.14374412      -0.87913683      -0.09859667       2.07367025
C        0.66747860      -0.10738565      -0.13613356       0.31347851      -0.04638264       0.66715415
Cl      -0.96569944      -0.16563432       2.06590331       0.10870758       0.02317607      -0.90533267
H       -1.32126674       0.76780581      -0.07897096      -0.10621859       0.22822330      -0.37942252
H       -1.30224365      -1.02538044      -0.11158584      -0.08938671      -0.18468815      -0.38182921
H        0.79952437      -0.08661851      -1.17772314       0.14405733       0.02485959      -1.40700999
H        1.11831595       0.77496460       0.28390284       0.29424532       0.29968707       0.22836462
H        1.13902341      -0.99608679       0.25160281       0.25949664      -0.24838777       0.19382914
Br      -1.33954614      -0.09417203      -2.89517092      -0.04524325       0.00210920      -0.08942378
9
Properties=species:S:1:pos:R:3:forces:R:3 method=Dimer image_index=13 is_ts=0 reaction_coordinate=0.24095158319368593 relative_energy=-0.09714252224654274 energy=-427.84072794373674 pbc="F F F"
C       -0.76648209      -0.12741251       0.24330962      -0.47124718      -0.05784053       1.35890723
C        0.66767762      -0.10748786      -0.14209900       0.20632504      -0.02613648       0.36435383
Cl      -0.89264274      -0.16074565       2.09741200       0.05466261       0.01443347      -0.62741584
H       -1.31119256       0.76345261      -0.02807859      -0.06407183       0.12699219      -0.22756471
H       -1.29379823      -1.01993166      -0.05807853      -0.05378898      -0.10158210      -0.22766015
H        0.71212368      -0.09019819      -1.20648681       0.00632607       0.01129923      -0.80982213
H        1.15534497       0.77739661       0.24247031       0.18454890       0.17517020       0.12147730
H        1.17434835      -0.99488912       0.21453428       0.16200161      -0.14348159       0.10362696
Br      -1.42741409      -0.09947082      -2.92455747      -0.02475624       0.00114561      -0.05590247
9
Properties=species:S:1:pos:R:3:forces:R:3 method=Dimer image_index=14 is_ts=0 reaction_coordinate=0.2831987522050803 relative_energy=-0.1615020101134519 energy=-427.90508743160365 pbc="F F F"
C       -0.75891416      -0.12804578       0.34287511       0.00085667      -0.00197291      -0.00131464
C        0.66787663      -0.10759006      -0.14806445       0.00170944      -0.00290567       0.00094141
Cl      -0.81958604      -0.15585698       2.12892068      -0.00031995       0.00035408      -0.00218272
H       -1.30111838       0.75909941       0.02281379      -0.00240015       0.00068425       0.00068132
H       -1.28535280      -1.01448288      -0.00457121       0.00056154       0.00107662       0.00195826
H        0.62472299      -0.09377786      -1.23525049      -0.00110216       0.00017562      -0.00173486
H        1.19237399       0.77982863       0.20103778       0.00145313       0.00518050       0.00139270
H        1.20967329      -0.99369144       0.17746576      -0.00059158      -0.00293586       0.00039745
Br      -1.51528204      -0.10476961      -2.95394402      -0.00016694       0.00034337      -0.00013893
